REMARK SMILES Cc1c(C(=O)N[C@]23C[C@H]4C[C@H](C[C@H](C4)C2)C3)nn(CCCCCO)c1-c1ccccc1
REMARK SMILES IDX 20 1 19 2 18 3 3 4 2 5 17 6 25 7 1 8 4 9 6 10 5 11 7 13 8 14
REMARK SMILES IDX 9 15 15 16 16 17 10 18 14 19 13 20 11 21 12 22 26 23 27 24
REMARK SMILES IDX 31 25 28 26 30 27 29 28 21 29 22 30 23 31 24 32
REMARK H PARENT 6 12 24 33
ROOT
ATOM      1  C   UNL     1       3.425   1.560  -0.072  1.00  0.00     0.024 C 
ENDROOT
BRANCH   1   2
ATOM      2  C   UNL     1       2.841   0.735  -1.220  1.00  0.00     0.145 C 
BRANCH   2   3
ATOM      3  N   UNL     1       1.729  -0.078  -0.722  1.00  0.00    -0.264 N 
ATOM      4  C   UNL     1      -0.258  -0.660  -0.188  1.00  0.00     0.153 A 
ATOM      5  C   UNL     1       0.587  -1.746   0.126  1.00  0.00     0.008 A 
ATOM      6  N   UNL     1       0.500   0.294  -0.692  1.00  0.00    -0.167 NA
ATOM      7  C   UNL     1       1.845  -1.342  -0.224  1.00  0.00     0.072 A 
ATOM      8  C   UNL     1       0.187  -3.072   0.721  1.00  0.00     0.049 C 
BRANCH   4   9
ATOM      9  C   UNL     1      -1.721  -0.604   0.007  1.00  0.00     0.272 C 
ATOM     10  N   UNL     1      -2.406   0.504  -0.340  1.00  0.00    -0.345 N 
ATOM     11  O   UNL     1      -2.308  -1.559   0.479  1.00  0.00    -0.267 OA
ATOM     12  H   UNL     1      -1.937   1.265  -0.716  1.00  0.00     0.164 HD
BRANCH  10  13
ATOM     13  C   UNL     1      -3.857   0.559  -0.147  1.00  0.00     0.041 C 
ATOM     14  C   UNL     1      -4.383   1.916  -0.617  1.00  0.00     0.032 C 
ATOM     15  C   UNL     1      -5.899   1.973  -0.416  1.00  0.00    -0.008 C 
ATOM     16  C   UNL     1      -4.182   0.372   1.337  1.00  0.00     0.032 C 
ATOM     17  C   UNL     1      -4.522  -0.555  -0.958  1.00  0.00     0.032 C 
ATOM     18  C   UNL     1      -6.563   0.860  -1.227  1.00  0.00     0.007 C 
ATOM     19  C   UNL     1      -6.223   1.787   1.068  1.00  0.00     0.007 C 
ATOM     20  C   UNL     1      -5.697   0.429   1.538  1.00  0.00    -0.008 C 
ATOM     21  C   UNL     1      -6.037  -0.498  -0.757  1.00  0.00    -0.008 C 
ATOM     22  C   UNL     1      -6.362  -0.684   0.726  1.00  0.00     0.007 C 
ENDBRANCH  10  13
ENDBRANCH   4   9
BRANCH   7  23
ATOM     23  C   UNL     1       3.093  -2.127  -0.091  1.00  0.00     0.000 A 
ATOM     24  C   UNL     1       3.356  -2.831   1.084  1.00  0.00     0.010 A 
ATOM     25  C   UNL     1       4.009  -2.170  -1.143  1.00  0.00     0.010 A 
ATOM     26  C   UNL     1       4.521  -3.561   1.201  1.00  0.00     0.001 A 
ATOM     27  C   UNL     1       5.173  -2.898  -1.011  1.00  0.00     0.001 A 
ATOM     28  C   UNL     1       5.428  -3.595   0.157  1.00  0.00     0.000 A 
ENDBRANCH   7  23
ENDBRANCH   2   3
ENDBRANCH   1   2
BRANCH   1  29
ATOM     29  C   UNL     1       4.587   2.409  -0.593  1.00  0.00     0.004 C 
BRANCH  29  30
ATOM     30  C   UNL     1       5.170   3.234   0.555  1.00  0.00     0.028 C 
BRANCH  30  31
ATOM     31  C   UNL     1       6.332   4.083   0.035  1.00  0.00     0.156 C 
BRANCH  31  32
ATOM     32  O   UNL     1       6.877   4.854   1.107  1.00  0.00    -0.396 OA
ATOM     33  H   UNL     1       7.619   5.417   0.849  1.00  0.00     0.210 HD
ENDBRANCH  31  32
ENDBRANCH  30  31
ENDBRANCH  29  30
ENDBRANCH   1  29
TORSDOF 9
