MODEL 1
REMARK VINA RESULT:    -9.326      0.000      0.000
REMARK INTER + INTRA:         -17.213
REMARK INTER:                 -15.596
REMARK INTRA:                  -1.617
REMARK UNBOUND:                -1.617
REMARK SMILES CCCCCCC(C)(C)c1ccc([C@@H]2C[C@H](O)CC[C@H]2CCCO)c(O)c1
REMARK SMILES IDX 10 1 11 2 12 3 13 4 25 5 27 6 7 7 8 8 9 9 6 10 5 11 4 12
REMARK SMILES IDX 3 13 2 14 1 15 26 16 14 18 20 19 15 20 19 21 16 22 18 23
REMARK SMILES IDX 21 24 22 25 23 26 24 27 17 29
REMARK H PARENT 26 17 24 28 17 30
ROOT
ATOM      1  C   UNL     1     136.051 142.888 169.522  1.00  0.00    -0.039 A 
ATOM      2  C   UNL     1     136.913 143.936 169.255  1.00  0.00     0.005 A 
ATOM      3  C   UNL     1     138.010 144.154 170.066  1.00  0.00     0.008 A 
ATOM      4  C   UNL     1     138.248 143.327 171.147  1.00  0.00    -0.003 A 
ATOM      5  C   UNL     1     137.384 142.276 171.417  1.00  0.00     0.119 A 
ATOM      6  C   UNL     1     136.281 142.061 170.604  1.00  0.00     0.050 A 
ENDROOT
BRANCH   1   7
ATOM      7  C   UNL     1     134.855 142.652 168.634  1.00  0.00    -0.010 C 
ATOM      8  C   UNL     1     134.514 141.161 168.627  1.00  0.00     0.016 C 
ATOM      9  C   UNL     1     135.180 143.107 167.210  1.00  0.00     0.016 C 
BRANCH   7  10
ATOM     10  C   UNL     1     133.661 143.447 169.166  1.00  0.00     0.011 C 
BRANCH  10  11
ATOM     11  C   UNL     1     133.577 144.789 168.435  1.00  0.00     0.001 C 
BRANCH  11  12
ATOM     12  C   UNL     1     134.027 145.910 169.372  1.00  0.00     0.000 C 
BRANCH  12  13
ATOM     13  C   UNL     1     133.216 147.175 169.082  1.00  0.00    -0.000 C 
BRANCH  13  14
ATOM     14  C   UNL     1     131.723 146.841 169.113  1.00  0.00    -0.003 C 
ATOM     15  C   UNL     1     130.971 147.941 169.867  1.00  0.00     0.004 C 
ENDBRANCH  13  14
ENDBRANCH  12  13
ENDBRANCH  11  12
ENDBRANCH  10  11
ENDBRANCH   7  10
ENDBRANCH   1   7
BRANCH   5  16
ATOM     16  O   UNL     1     137.613 141.464 172.483  1.00  0.00    -0.508 OA
ATOM     17  H   UNL     1     138.520 141.133 172.538  1.00  0.00     0.293 HD
ENDBRANCH   5  16
BRANCH   4  18
ATOM     18  C   UNL     1     139.445 143.567 172.031  1.00  0.00     0.028 C 
ATOM     19  C   UNL     1     140.648 143.954 171.168  1.00  0.00    -0.003 C 
ATOM     20  C   UNL     1     139.136 144.699 173.012  1.00  0.00     0.040 C 
ATOM     21  C   UNL     1     141.863 144.197 172.066  1.00  0.00     0.007 C 
ATOM     22  C   UNL     1     140.350 144.942 173.910  1.00  0.00     0.115 C 
ATOM     23  C   UNL     1     141.553 145.330 173.047  1.00  0.00     0.032 C 
BRANCH  19  24
ATOM     24  C   UNL     1     140.957 142.822 170.187  1.00  0.00     0.006 C 
BRANCH  24  25
ATOM     25  C   UNL     1     141.842 143.354 169.057  1.00  0.00     0.028 C 
BRANCH  25  26
ATOM     26  C   UNL     1     141.223 144.631 168.484  1.00  0.00     0.156 C 
BRANCH  26  27
ATOM     27  O   UNL     1     142.150 145.711 168.618  1.00  0.00    -0.396 OA
ATOM     28  H   UNL     1     141.780 146.576 168.397  1.00  0.00     0.210 HD
ENDBRANCH  26  27
ENDBRANCH  25  26
ENDBRANCH  24  25
ENDBRANCH  19  24
BRANCH  22  29
ATOM     29  O   UNL     1     140.062 145.999 174.827  1.00  0.00    -0.393 OA
ATOM     30  H   UNL     1     140.030 146.876 174.419  1.00  0.00     0.210 HD
ENDBRANCH  22  29
ENDBRANCH   4  18
TORSDOF 13
ENDMDL
MODEL 2
REMARK VINA RESULT:    -9.106      1.150      1.364
REMARK INTER + INTRA:         -16.844
REMARK INTER:                 -15.376
REMARK INTRA:                  -1.468
REMARK UNBOUND:                -1.617
REMARK SMILES CCCCCCC(C)(C)c1ccc([C@@H]2C[C@H](O)CC[C@H]2CCCO)c(O)c1
REMARK SMILES IDX 10 1 11 2 12 3 13 4 25 5 27 6 7 7 8 8 9 9 6 10 5 11 4 12
REMARK SMILES IDX 3 13 2 14 1 15 26 16 14 18 20 19 15 20 19 21 16 22 18 23
REMARK SMILES IDX 21 24 22 25 23 26 24 27 17 29
REMARK H PARENT 26 17 24 28 17 30
ROOT
ATOM      1  C   UNL     1     136.340 142.663 170.000  1.00  0.00    -0.039 A 
ATOM      2  C   UNL     1     137.016 143.867 169.940  1.00  0.00     0.005 A 
ATOM      3  C   UNL     1     137.970 144.175 170.891  1.00  0.00     0.008 A 
ATOM      4  C   UNL     1     138.251 143.280 171.905  1.00  0.00    -0.003 A 
ATOM      5  C   UNL     1     137.574 142.071 171.968  1.00  0.00     0.119 A 
ATOM      6  C   UNL     1     136.613 141.766 171.014  1.00  0.00     0.050 A 
ENDROOT
BRANCH   1   7
ATOM      7  C   UNL     1     135.301 142.329 168.960  1.00  0.00    -0.010 C 
ATOM      8  C   UNL     1     135.071 140.817 168.937  1.00  0.00     0.016 C 
ATOM      9  C   UNL     1     135.788 142.792 167.585  1.00  0.00     0.016 C 
BRANCH   7  10
ATOM     10  C   UNL     1     133.991 143.040 169.304  1.00  0.00     0.011 C 
BRANCH  10  11
ATOM     11  C   UNL     1     133.561 143.915 168.125  1.00  0.00     0.001 C 
BRANCH  11  12
ATOM     12  C   UNL     1     132.974 145.227 168.649  1.00  0.00     0.000 C 
BRANCH  12  13
ATOM     13  C   UNL     1     134.074 146.040 169.336  1.00  0.00    -0.000 C 
BRANCH  13  14
ATOM     14  C   UNL     1     133.609 147.488 169.501  1.00  0.00    -0.003 C 
ATOM     15  C   UNL     1     132.090 147.559 169.325  1.00  0.00     0.004 C 
ENDBRANCH  13  14
ENDBRANCH  12  13
ENDBRANCH  11  12
ENDBRANCH  10  11
ENDBRANCH   7  10
ENDBRANCH   1   7
BRANCH   5  16
ATOM     16  O   UNL     1     137.845 141.190 172.967  1.00  0.00    -0.508 OA
ATOM     17  H   UNL     1     138.541 140.555 172.754  1.00  0.00     0.293 HD
ENDBRANCH   5  16
BRANCH   4  18
ATOM     18  C   UNL     1     139.292 143.617 172.942  1.00  0.00     0.028 C 
ATOM     19  C   UNL     1     140.337 144.553 172.330  1.00  0.00    -0.003 C 
ATOM     20  C   UNL     1     138.622 144.309 174.130  1.00  0.00     0.040 C 
ATOM     21  C   UNL     1     141.394 144.894 173.383  1.00  0.00     0.007 C 
ATOM     22  C   UNL     1     139.678 144.650 175.183  1.00  0.00     0.115 C 
ATOM     23  C   UNL     1     140.724 145.586 174.572  1.00  0.00     0.032 C 
BRANCH  19  24
ATOM     24  C   UNL     1     141.007 143.861 171.141  1.00  0.00     0.006 C 
BRANCH  24  25
ATOM     25  C   UNL     1     142.471 144.298 171.056  1.00  0.00     0.028 C 
BRANCH  25  26
ATOM     26  C   UNL     1     142.596 145.471 170.081  1.00  0.00     0.156 C 
BRANCH  26  27
ATOM     27  O   UNL     1     143.631 146.351 170.525  1.00  0.00    -0.396 OA
ATOM     28  H   UNL     1     144.481 146.212 170.086  1.00  0.00     0.210 HD
ENDBRANCH  26  27
ENDBRANCH  25  26
ENDBRANCH  24  25
ENDBRANCH  19  24
BRANCH  22  29
ATOM     29  O   UNL     1     139.052 145.297 176.293  1.00  0.00    -0.393 OA
ATOM     30  H   UNL     1     139.390 145.014 177.155  1.00  0.00     0.210 HD
ENDBRANCH  22  29
ENDBRANCH   4  18
TORSDOF 13
ENDMDL
MODEL 3
REMARK VINA RESULT:    -8.984      1.802      3.501
REMARK INTER + INTRA:         -16.641
REMARK INTER:                 -14.627
REMARK INTRA:                  -2.014
REMARK UNBOUND:                -1.617
REMARK SMILES CCCCCCC(C)(C)c1ccc([C@@H]2C[C@H](O)CC[C@H]2CCCO)c(O)c1
REMARK SMILES IDX 10 1 11 2 12 3 13 4 25 5 27 6 7 7 8 8 9 9 6 10 5 11 4 12
REMARK SMILES IDX 3 13 2 14 1 15 26 16 14 18 20 19 15 20 19 21 16 22 18 23
REMARK SMILES IDX 21 24 22 25 23 26 24 27 17 29
REMARK H PARENT 26 17 24 28 17 30
ROOT
ATOM      1  C   UNL     1     136.318 143.727 170.102  1.00  0.00    -0.039 A 
ATOM      2  C   UNL     1     136.950 144.883 170.522  1.00  0.00     0.005 A 
ATOM      3  C   UNL     1     137.888 144.832 171.536  1.00  0.00     0.008 A 
ATOM      4  C   UNL     1     138.196 143.625 172.133  1.00  0.00    -0.003 A 
ATOM      5  C   UNL     1     137.563 142.463 171.714  1.00  0.00     0.119 A 
ATOM      6  C   UNL     1     136.619 142.518 170.700  1.00  0.00     0.050 A 
ENDROOT
BRANCH   1   7
ATOM      7  C   UNL     1     135.296 143.785 168.996  1.00  0.00    -0.010 C 
ATOM      8  C   UNL     1     135.965 143.432 167.666  1.00  0.00     0.016 C 
ATOM      9  C   UNL     1     134.713 145.198 168.915  1.00  0.00     0.016 C 
BRANCH   7  10
ATOM     10  C   UNL     1     134.175 142.786 169.285  1.00  0.00     0.011 C 
BRANCH  10  11
ATOM     11  C   UNL     1     133.966 141.887 168.064  1.00  0.00     0.001 C 
BRANCH  11  12
ATOM     12  C   UNL     1     133.772 140.441 168.522  1.00  0.00     0.000 C 
BRANCH  12  13
ATOM     13  C   UNL     1     133.708 140.393 170.049  1.00  0.00    -0.000 C 
BRANCH  13  14
ATOM     14  C   UNL     1     134.620 139.277 170.563  1.00  0.00    -0.003 C 
ATOM     15  C   UNL     1     135.902 139.241 169.726  1.00  0.00     0.004 C 
ENDBRANCH  13  14
ENDBRANCH  12  13
ENDBRANCH  11  12
ENDBRANCH  10  11
ENDBRANCH   7  10
ENDBRANCH   1   7
BRANCH   5  16
ATOM     16  O   UNL     1     137.862 141.276 172.304  1.00  0.00    -0.508 OA
ATOM     17  H   UNL     1     138.469 140.724 171.792  1.00  0.00     0.293 HD
ENDBRANCH   5  16
BRANCH   4  18
ATOM     18  C   UNL     1     139.219 143.570 173.239  1.00  0.00     0.028 C 
ATOM     19  C   UNL     1     140.428 144.430 172.859  1.00  0.00    -0.003 C 
ATOM     20  C   UNL     1     138.602 144.105 174.532  1.00  0.00     0.040 C 
ATOM     21  C   UNL     1     141.466 144.374 173.981  1.00  0.00     0.007 C 
ATOM     22  C   UNL     1     139.639 144.049 175.655  1.00  0.00     0.115 C 
ATOM     23  C   UNL     1     140.848 144.908 175.275  1.00  0.00     0.032 C 
BRANCH  19  24
ATOM     24  C   UNL     1     141.046 143.896 171.565  1.00  0.00     0.006 C 
BRANCH  24  25
ATOM     25  C   UNL     1     142.496 144.372 171.459  1.00  0.00     0.028 C 
BRANCH  25  26
ATOM     26  C   UNL     1     142.639 145.306 170.254  1.00  0.00     0.156 C 
BRANCH  26  27
ATOM     27  O   UNL     1     143.668 146.264 170.514  1.00  0.00    -0.396 OA
ATOM     28  H   UNL     1     144.230 146.042 171.268  1.00  0.00     0.210 HD
ENDBRANCH  26  27
ENDBRANCH  25  26
ENDBRANCH  24  25
ENDBRANCH  19  24
BRANCH  22  29
ATOM     29  O   UNL     1     139.062 144.547 176.863  1.00  0.00    -0.393 OA
ATOM     30  H   UNL     1     139.046 143.905 177.586  1.00  0.00     0.210 HD
ENDBRANCH  22  29
ENDBRANCH   4  18
TORSDOF 13
ENDMDL
MODEL 4
REMARK VINA RESULT:    -8.830      1.903      4.032
REMARK INTER + INTRA:         -16.383
REMARK INTER:                 -14.662
REMARK INTRA:                  -1.721
REMARK UNBOUND:                -1.617
REMARK SMILES CCCCCCC(C)(C)c1ccc([C@@H]2C[C@H](O)CC[C@H]2CCCO)c(O)c1
REMARK SMILES IDX 10 1 11 2 12 3 13 4 25 5 27 6 7 7 8 8 9 9 6 10 5 11 4 12
REMARK SMILES IDX 3 13 2 14 1 15 26 16 14 18 20 19 15 20 19 21 16 22 18 23
REMARK SMILES IDX 21 24 22 25 23 26 24 27 17 29
REMARK H PARENT 26 17 24 28 17 30
ROOT
ATOM      1  C   UNL     1     135.857 141.506 170.420  1.00  0.00    -0.039 A 
ATOM      2  C   UNL     1     136.655 141.117 171.480  1.00  0.00     0.005 A 
ATOM      3  C   UNL     1     137.705 141.918 171.889  1.00  0.00     0.008 A 
ATOM      4  C   UNL     1     137.960 143.110 171.239  1.00  0.00    -0.003 A 
ATOM      5  C   UNL     1     137.161 143.502 170.174  1.00  0.00     0.119 A 
ATOM      6  C   UNL     1     136.111 142.694 169.763  1.00  0.00     0.050 A 
ENDROOT
BRANCH   1   7
ATOM      7  C   UNL     1     134.713 140.630 169.977  1.00  0.00    -0.010 C 
ATOM      8  C   UNL     1     133.430 141.076 170.680  1.00  0.00     0.016 C 
ATOM      9  C   UNL     1     135.014 139.175 170.340  1.00  0.00     0.016 C 
BRANCH   7  10
ATOM     10  C   UNL     1     134.534 140.753 168.463  1.00  0.00     0.011 C 
BRANCH  10  11
ATOM     11  C   UNL     1     133.167 141.367 168.159  1.00  0.00     0.001 C 
BRANCH  11  12
ATOM     12  C   UNL     1     133.277 142.280 166.936  1.00  0.00     0.000 C 
BRANCH  12  13
ATOM     13  C   UNL     1     133.858 143.631 167.358  1.00  0.00    -0.000 C 
BRANCH  13  14
ATOM     14  C   UNL     1     133.097 144.155 168.576  1.00  0.00    -0.003 C 
ATOM     15  C   UNL     1     133.751 145.448 169.069  1.00  0.00     0.004 C 
ENDBRANCH  13  14
ENDBRANCH  12  13
ENDBRANCH  11  12
ENDBRANCH  10  11
ENDBRANCH   7  10
ENDBRANCH   1   7
BRANCH   5  16
ATOM     16  O   UNL     1     137.413 144.672 169.530  1.00  0.00    -0.508 OA
ATOM     17  H   UNL     1     138.104 144.609 168.856  1.00  0.00     0.293 HD
ENDBRANCH   5  16
BRANCH   4  18
ATOM     18  C   UNL     1     139.104 143.983 171.685  1.00  0.00     0.028 C 
ATOM     19  C   UNL     1     139.417 143.701 173.157  1.00  0.00    -0.003 C 
ATOM     20  C   UNL     1     140.339 143.679 170.836  1.00  0.00     0.040 C 
ATOM     21  C   UNL     1     140.578 144.587 173.610  1.00  0.00     0.007 C 
ATOM     22  C   UNL     1     141.501 144.565 171.288  1.00  0.00     0.115 C 
ATOM     23  C   UNL     1     141.814 144.283 172.759  1.00  0.00     0.032 C 
BRANCH  19  24
ATOM     24  C   UNL     1     138.182 144.005 174.007  1.00  0.00     0.006 C 
BRANCH  24  25
ATOM     25  C   UNL     1     138.514 143.787 175.485  1.00  0.00     0.028 C 
BRANCH  25  26
ATOM     26  C   UNL     1     138.437 142.293 175.810  1.00  0.00     0.156 C 
BRANCH  26  27
ATOM     27  O   UNL     1     139.755 141.786 176.033  1.00  0.00    -0.396 OA
ATOM     28  H   UNL     1     140.354 142.419 176.451  1.00  0.00     0.210 HD
ENDBRANCH  26  27
ENDBRANCH  25  26
ENDBRANCH  24  25
ENDBRANCH  19  24
BRANCH  22  29
ATOM     29  O   UNL     1     142.654 144.281 170.494  1.00  0.00    -0.393 OA
ATOM     30  H   UNL     1     143.076 145.066 170.118  1.00  0.00     0.210 HD
ENDBRANCH  22  29
ENDBRANCH   4  18
TORSDOF 13
ENDMDL
MODEL 5
REMARK VINA RESULT:    -8.747      1.319      1.672
REMARK INTER + INTRA:         -16.244
REMARK INTER:                 -15.538
REMARK INTRA:                  -0.706
REMARK UNBOUND:                -1.617
REMARK SMILES CCCCCCC(C)(C)c1ccc([C@@H]2C[C@H](O)CC[C@H]2CCCO)c(O)c1
REMARK SMILES IDX 10 1 11 2 12 3 13 4 25 5 27 6 7 7 8 8 9 9 6 10 5 11 4 12
REMARK SMILES IDX 3 13 2 14 1 15 26 16 14 18 20 19 15 20 19 21 16 22 18 23
REMARK SMILES IDX 21 24 22 25 23 26 24 27 17 29
REMARK H PARENT 26 17 24 28 17 30
ROOT
ATOM      1  C   UNL     1     135.745 142.446 169.806  1.00  0.00    -0.039 A 
ATOM      2  C   UNL     1     136.079 141.408 170.655  1.00  0.00     0.005 A 
ATOM      3  C   UNL     1     137.035 141.593 171.636  1.00  0.00     0.008 A 
ATOM      4  C   UNL     1     137.661 142.818 171.769  1.00  0.00    -0.003 A 
ATOM      5  C   UNL     1     137.328 143.862 170.918  1.00  0.00     0.119 A 
ATOM      6  C   UNL     1     136.371 143.671 169.932  1.00  0.00     0.050 A 
ENDROOT
BRANCH   1   7
ATOM      7  C   UNL     1     134.701 142.240 168.738  1.00  0.00    -0.010 C 
ATOM      8  C   UNL     1     134.349 140.755 168.650  1.00  0.00     0.016 C 
ATOM      9  C   UNL     1     135.248 142.716 167.391  1.00  0.00     0.016 C 
BRANCH   7  10
ATOM     10  C   UNL     1     133.446 143.042 169.092  1.00  0.00     0.011 C 
BRANCH  10  11
ATOM     11  C   UNL     1     133.340 144.256 168.167  1.00  0.00     0.001 C 
BRANCH  11  12
ATOM     12  C   UNL     1     133.373 145.538 169.000  1.00  0.00     0.000 C 
BRANCH  12  13
ATOM     13  C   UNL     1     132.405 146.561 168.403  1.00  0.00    -0.000 C 
BRANCH  13  14
ATOM     14  C   UNL     1     132.040 147.598 169.466  1.00  0.00    -0.003 C 
ATOM     15  C   UNL     1     130.518 147.760 169.519  1.00  0.00     0.004 C 
ENDBRANCH  13  14
ENDBRANCH  12  13
ENDBRANCH  11  12
ENDBRANCH  10  11
ENDBRANCH   7  10
ENDBRANCH   1   7
BRANCH   5  16
ATOM     16  O   UNL     1     137.946 145.066 171.044  1.00  0.00    -0.508 OA
ATOM     17  H   UNL     1     137.798 145.664 170.299  1.00  0.00     0.293 HD
ENDBRANCH   5  16
BRANCH   4  18
ATOM     18  C   UNL     1     138.704 143.019 172.839  1.00  0.00     0.028 C 
ATOM     19  C   UNL     1     139.953 143.651 172.220  1.00  0.00    -0.003 C 
ATOM     20  C   UNL     1     138.150 143.945 173.923  1.00  0.00     0.040 C 
ATOM     21  C   UNL     1     141.012 143.856 173.305  1.00  0.00     0.007 C 
ATOM     22  C   UNL     1     139.208 144.149 175.009  1.00  0.00     0.115 C 
ATOM     23  C   UNL     1     140.457 144.781 174.390  1.00  0.00     0.032 C 
BRANCH  19  24
ATOM     24  C   UNL     1     140.507 142.726 171.134  1.00  0.00     0.006 C 
BRANCH  24  25
ATOM     25  C   UNL     1     140.959 143.561 169.934  1.00  0.00     0.028 C 
BRANCH  25  26
ATOM     26  C   UNL     1     142.457 143.851 170.050  1.00  0.00     0.156 C 
BRANCH  26  27
ATOM     27  O   UNL     1     142.652 145.227 170.385  1.00  0.00    -0.396 OA
ATOM     28  H   UNL     1     143.178 145.366 171.185  1.00  0.00     0.210 HD
ENDBRANCH  26  27
ENDBRANCH  25  26
ENDBRANCH  24  25
ENDBRANCH  19  24
BRANCH  22  29
ATOM     29  O   UNL     1     138.690 145.013 176.022  1.00  0.00    -0.393 OA
ATOM     30  H   UNL     1     138.699 144.629 176.910  1.00  0.00     0.210 HD
ENDBRANCH  22  29
ENDBRANCH   4  18
TORSDOF 13
ENDMDL
MODEL 6
REMARK VINA RESULT:    -8.537      2.216      7.124
REMARK INTER + INTRA:         -15.893
REMARK INTER:                 -14.185
REMARK INTRA:                  -1.708
REMARK UNBOUND:                -1.617
REMARK SMILES CCCCCCC(C)(C)c1ccc([C@@H]2C[C@H](O)CC[C@H]2CCCO)c(O)c1
REMARK SMILES IDX 10 1 11 2 12 3 13 4 25 5 27 6 7 7 8 8 9 9 6 10 5 11 4 12
REMARK SMILES IDX 3 13 2 14 1 15 26 16 14 18 20 19 15 20 19 21 16 22 18 23
REMARK SMILES IDX 21 24 22 25 23 26 24 27 17 29
REMARK H PARENT 26 17 24 28 17 30
ROOT
ATOM      1  C   UNL     1     139.689 143.628 170.302  1.00  0.00    -0.039 A 
ATOM      2  C   UNL     1     138.948 144.066 169.220  1.00  0.00     0.005 A 
ATOM      3  C   UNL     1     137.591 143.812 169.160  1.00  0.00     0.008 A 
ATOM      4  C   UNL     1     136.971 143.119 170.181  1.00  0.00    -0.003 A 
ATOM      5  C   UNL     1     137.712 142.677 171.268  1.00  0.00     0.119 A 
ATOM      6  C   UNL     1     139.075 142.929 171.323  1.00  0.00     0.050 A 
ENDROOT
BRANCH   1   7
ATOM      7  C   UNL     1     141.169 143.908 170.365  1.00  0.00    -0.010 C 
ATOM      8  C   UNL     1     141.480 145.183 169.580  1.00  0.00     0.016 C 
ATOM      9  C   UNL     1     141.936 142.733 169.755  1.00  0.00     0.016 C 
BRANCH   7  10
ATOM     10  C   UNL     1     141.591 144.091 171.825  1.00  0.00     0.011 C 
BRANCH  10  11
ATOM     11  C   UNL     1     141.551 145.577 172.184  1.00  0.00     0.001 C 
BRANCH  11  12
ATOM     12  C   UNL     1     140.716 145.775 173.450  1.00  0.00     0.000 C 
BRANCH  12  13
ATOM     13  C   UNL     1     139.273 146.107 173.063  1.00  0.00    -0.000 C 
BRANCH  13  14
ATOM     14  C   UNL     1     138.314 145.242 173.882  1.00  0.00    -0.003 C 
ATOM     15  C   UNL     1     139.117 144.254 174.731  1.00  0.00     0.004 C 
ENDBRANCH  13  14
ENDBRANCH  12  13
ENDBRANCH  11  12
ENDBRANCH  10  11
ENDBRANCH   7  10
ENDBRANCH   1   7
BRANCH   5  16
ATOM     16  O   UNL     1     137.105 141.990 172.271  1.00  0.00    -0.508 OA
ATOM     17  H   UNL     1     137.697 141.745 172.994  1.00  0.00     0.293 HD
ENDBRANCH   5  16
BRANCH   4  18
ATOM     18  C   UNL     1     135.491 142.841 170.114  1.00  0.00     0.028 C 
ATOM     19  C   UNL     1     134.856 143.717 169.031  1.00  0.00    -0.003 C 
ATOM     20  C   UNL     1     135.263 141.367 169.776  1.00  0.00     0.040 C 
ATOM     21  C   UNL     1     133.354 143.436 168.964  1.00  0.00     0.007 C 
ATOM     22  C   UNL     1     133.760 141.086 169.709  1.00  0.00     0.115 C 
ATOM     23  C   UNL     1     133.126 141.961 168.626  1.00  0.00     0.032 C 
BRANCH  19  24
ATOM     24  C   UNL     1     135.085 145.192 169.369  1.00  0.00     0.006 C 
BRANCH  24  25
ATOM     25  C   UNL     1     133.840 145.999 168.994  1.00  0.00     0.028 C 
BRANCH  25  26
ATOM     26  C   UNL     1     133.875 147.352 169.708  1.00  0.00     0.156 C 
BRANCH  26  27
ATOM     27  O   UNL     1     132.546 147.863 169.826  1.00  0.00    -0.396 OA
ATOM     28  H   UNL     1     132.325 148.186 170.710  1.00  0.00     0.210 HD
ENDBRANCH  26  27
ENDBRANCH  25  26
ENDBRANCH  24  25
ENDBRANCH  19  24
BRANCH  22  29
ATOM     29  O   UNL     1     133.547 139.709 169.393  1.00  0.00    -0.393 OA
ATOM     30  H   UNL     1     134.185 139.347 168.762  1.00  0.00     0.210 HD
ENDBRANCH  22  29
ENDBRANCH   4  18
TORSDOF 13
ENDMDL
MODEL 7
REMARK VINA RESULT:    -8.426      2.165      3.625
REMARK INTER + INTRA:         -15.708
REMARK INTER:                 -14.014
REMARK INTRA:                  -1.694
REMARK UNBOUND:                -1.617
REMARK SMILES CCCCCCC(C)(C)c1ccc([C@@H]2C[C@H](O)CC[C@H]2CCCO)c(O)c1
REMARK SMILES IDX 10 1 11 2 12 3 13 4 25 5 27 6 7 7 8 8 9 9 6 10 5 11 4 12
REMARK SMILES IDX 3 13 2 14 1 15 26 16 14 18 20 19 15 20 19 21 16 22 18 23
REMARK SMILES IDX 21 24 22 25 23 26 24 27 17 29
REMARK H PARENT 26 17 24 28 17 30
ROOT
ATOM      1  C   UNL     1     137.194 144.056 170.826  1.00  0.00    -0.039 A 
ATOM      2  C   UNL     1     137.603 145.131 171.592  1.00  0.00     0.005 A 
ATOM      3  C   UNL     1     138.413 144.931 172.693  1.00  0.00     0.008 A 
ATOM      4  C   UNL     1     138.817 143.654 173.032  1.00  0.00    -0.003 A 
ATOM      5  C   UNL     1     138.407 142.572 172.265  1.00  0.00     0.119 A 
ATOM      6  C   UNL     1     137.590 142.776 171.163  1.00  0.00     0.050 A 
ENDROOT
BRANCH   1   7
ATOM      7  C   UNL     1     136.311 144.279 169.625  1.00  0.00    -0.010 C 
ATOM      8  C   UNL     1     137.169 144.298 168.359  1.00  0.00     0.016 C 
ATOM      9  C   UNL     1     135.583 145.617 169.768  1.00  0.00     0.016 C 
BRANCH   7  10
ATOM     10  C   UNL     1     135.285 143.147 169.529  1.00  0.00     0.011 C 
BRANCH  10  11
ATOM     11  C   UNL     1     134.778 143.039 168.090  1.00  0.00     0.001 C 
BRANCH  11  12
ATOM     12  C   UNL     1     134.075 141.695 167.896  1.00  0.00     0.000 C 
BRANCH  12  13
ATOM     13  C   UNL     1     132.910 141.580 168.881  1.00  0.00    -0.000 C 
BRANCH  13  14
ATOM     14  C   UNL     1     132.842 140.152 169.425  1.00  0.00    -0.003 C 
ATOM     15  C   UNL     1     134.197 139.770 170.027  1.00  0.00     0.004 C 
ENDBRANCH  13  14
ENDBRANCH  12  13
ENDBRANCH  11  12
ENDBRANCH  10  11
ENDBRANCH   7  10
ENDBRANCH   1   7
BRANCH   5  16
ATOM     16  O   UNL     1     138.799 141.314 172.599  1.00  0.00    -0.508 OA
ATOM     17  H   UNL     1     139.518 140.968 172.053  1.00  0.00     0.293 HD
ENDBRANCH   5  16
BRANCH   4  18
ATOM     18  C   UNL     1     139.700 143.435 174.233  1.00  0.00     0.028 C 
ATOM     19  C   UNL     1     140.917 144.360 174.147  1.00  0.00    -0.003 C 
ATOM     20  C   UNL     1     138.914 143.745 175.508  1.00  0.00     0.040 C 
ATOM     21  C   UNL     1     141.814 144.138 175.366  1.00  0.00     0.007 C 
ATOM     22  C   UNL     1     139.811 143.523 176.727  1.00  0.00     0.115 C 
ATOM     23  C   UNL     1     141.027 144.448 176.641  1.00  0.00     0.032 C 
BRANCH  19  24
ATOM     24  C   UNL     1     141.703 144.050 172.871  1.00  0.00     0.006 C 
BRANCH  24  25
ATOM     25  C   UNL     1     141.993 145.353 172.122  1.00  0.00     0.028 C 
BRANCH  25  26
ATOM     26  C   UNL     1     142.996 145.082 170.998  1.00  0.00     0.156 C 
BRANCH  26  27
ATOM     27  O   UNL     1     143.142 146.257 170.198  1.00  0.00    -0.396 OA
ATOM     28  H   UNL     1     143.612 146.110 169.366  1.00  0.00     0.210 HD
ENDBRANCH  26  27
ENDBRANCH  25  26
ENDBRANCH  24  25
ENDBRANCH  19  24
BRANCH  22  29
ATOM     29  O   UNL     1     139.076 143.812 177.918  1.00  0.00    -0.393 OA
ATOM     30  H   UNL     1     138.460 143.114 178.180  1.00  0.00     0.210 HD
ENDBRANCH  22  29
ENDBRANCH   4  18
TORSDOF 13
ENDMDL
MODEL 8
REMARK VINA RESULT:    -8.245      2.339      7.218
REMARK INTER + INTRA:         -15.405
REMARK INTER:                 -14.487
REMARK INTRA:                  -0.918
REMARK UNBOUND:                -1.617
REMARK SMILES CCCCCCC(C)(C)c1ccc([C@@H]2C[C@H](O)CC[C@H]2CCCO)c(O)c1
REMARK SMILES IDX 10 1 11 2 12 3 13 4 25 5 27 6 7 7 8 8 9 9 6 10 5 11 4 12
REMARK SMILES IDX 3 13 2 14 1 15 26 16 14 18 20 19 15 20 19 21 16 22 18 23
REMARK SMILES IDX 21 24 22 25 23 26 24 27 17 29
REMARK H PARENT 26 17 24 28 17 30
ROOT
ATOM      1  C   UNL     1     139.737 144.134 172.909  1.00  0.00    -0.039 A 
ATOM      2  C   UNL     1     138.796 145.003 172.388  1.00  0.00     0.005 A 
ATOM      3  C   UNL     1     137.686 144.510 171.729  1.00  0.00     0.008 A 
ATOM      4  C   UNL     1     137.514 143.147 171.588  1.00  0.00    -0.003 A 
ATOM      5  C   UNL     1     138.457 142.272 172.109  1.00  0.00     0.119 A 
ATOM      6  C   UNL     1     139.573 142.770 172.767  1.00  0.00     0.050 A 
ENDROOT
BRANCH   1   7
ATOM      7  C   UNL     1     140.946 144.676 173.629  1.00  0.00    -0.010 C 
ATOM      8  C   UNL     1     141.136 143.920 174.945  1.00  0.00     0.016 C 
ATOM      9  C   UNL     1     140.742 146.164 173.920  1.00  0.00     0.016 C 
BRANCH   7  10
ATOM     10  C   UNL     1     142.186 144.492 172.751  1.00  0.00     0.011 C 
BRANCH  10  11
ATOM     11  C   UNL     1     142.312 145.679 171.793  1.00  0.00     0.001 C 
BRANCH  11  12
ATOM     12  C   UNL     1     142.345 145.170 170.351  1.00  0.00     0.000 C 
BRANCH  12  13
ATOM     13  C   UNL     1     142.436 143.642 170.351  1.00  0.00    -0.000 C 
BRANCH  13  14
ATOM     14  C   UNL     1     141.564 143.080 169.226  1.00  0.00    -0.003 C 
ATOM     15  C   UNL     1     140.281 143.908 169.114  1.00  0.00     0.004 C 
ENDBRANCH  13  14
ENDBRANCH  12  13
ENDBRANCH  11  12
ENDBRANCH  10  11
ENDBRANCH   7  10
ENDBRANCH   1   7
BRANCH   5  16
ATOM     16  O   UNL     1     138.292 140.931 171.968  1.00  0.00    -0.508 OA
ATOM     17  H   UNL     1     137.884 140.502 172.731  1.00  0.00     0.293 HD
ENDBRANCH   5  16
BRANCH   4  18
ATOM     18  C   UNL     1     136.304 142.609 170.868  1.00  0.00     0.028 C 
ATOM     19  C   UNL     1     136.421 142.916 169.373  1.00  0.00    -0.003 C 
ATOM     20  C   UNL     1     136.219 141.096 171.073  1.00  0.00     0.040 C 
ATOM     21  C   UNL     1     135.192 142.371 168.643  1.00  0.00     0.007 C 
ATOM     22  C   UNL     1     134.990 140.550 170.343  1.00  0.00     0.115 C 
ATOM     23  C   UNL     1     135.107 140.857 168.848  1.00  0.00     0.032 C 
BRANCH  19  24
ATOM     24  C   UNL     1     136.506 144.430 169.168  1.00  0.00     0.006 C 
BRANCH  24  25
ATOM     25  C   UNL     1     135.105 144.988 168.910  1.00  0.00     0.028 C 
BRANCH  25  26
ATOM     26  C   UNL     1     134.894 146.247 169.755  1.00  0.00     0.156 C 
BRANCH  26  27
ATOM     27  O   UNL     1     133.648 146.853 169.404  1.00  0.00    -0.396 OA
ATOM     28  H   UNL     1     133.241 147.358 170.120  1.00  0.00     0.210 HD
ENDBRANCH  26  27
ENDBRANCH  25  26
ENDBRANCH  24  25
ENDBRANCH  19  24
BRANCH  22  29
ATOM     29  O   UNL     1     134.911 139.137 170.534  1.00  0.00    -0.393 OA
ATOM     30  H   UNL     1     134.857 138.631 169.712  1.00  0.00     0.210 HD
ENDBRANCH  22  29
ENDBRANCH   4  18
TORSDOF 13
ENDMDL
MODEL 9
REMARK VINA RESULT:    -7.856      2.291      7.595
REMARK INTER + INTRA:         -14.754
REMARK INTER:                 -13.016
REMARK INTRA:                  -1.738
REMARK UNBOUND:                -1.617
REMARK SMILES CCCCCCC(C)(C)c1ccc([C@@H]2C[C@H](O)CC[C@H]2CCCO)c(O)c1
REMARK SMILES IDX 10 1 11 2 12 3 13 4 25 5 27 6 7 7 8 8 9 9 6 10 5 11 4 12
REMARK SMILES IDX 3 13 2 14 1 15 26 16 14 18 20 19 15 20 19 21 16 22 18 23
REMARK SMILES IDX 21 24 22 25 23 26 24 27 17 29
REMARK H PARENT 26 17 24 28 17 30
ROOT
ATOM      1  C   UNL     1     140.207 144.216 171.294  1.00  0.00    -0.039 A 
ATOM      2  C   UNL     1     139.721 144.001 170.018  1.00  0.00     0.005 A 
ATOM      3  C   UNL     1     138.439 143.518 169.836  1.00  0.00     0.008 A 
ATOM      4  C   UNL     1     137.639 143.249 170.930  1.00  0.00    -0.003 A 
ATOM      5  C   UNL     1     138.124 143.464 172.212  1.00  0.00     0.119 A 
ATOM      6  C   UNL     1     139.413 143.944 172.392  1.00  0.00     0.050 A 
ENDROOT
BRANCH   1   7
ATOM      7  C   UNL     1     141.606 144.744 171.489  1.00  0.00    -0.010 C 
ATOM      8  C   UNL     1     141.769 146.052 170.713  1.00  0.00     0.016 C 
ATOM      9  C   UNL     1     142.614 143.716 170.973  1.00  0.00     0.016 C 
BRANCH   7  10
ATOM     10  C   UNL     1     141.851 144.998 172.977  1.00  0.00     0.011 C 
BRANCH  10  11
ATOM     11  C   UNL     1     142.737 143.888 173.545  1.00  0.00     0.001 C 
BRANCH  11  12
ATOM     12  C   UNL     1     142.254 143.516 174.947  1.00  0.00     0.000 C 
BRANCH  12  13
ATOM     13  C   UNL     1     141.351 144.626 175.488  1.00  0.00    -0.000 C 
BRANCH  13  14
ATOM     14  C   UNL     1     140.179 144.004 176.250  1.00  0.00    -0.003 C 
ATOM     15  C   UNL     1     139.977 142.560 175.783  1.00  0.00     0.004 C 
ENDBRANCH  13  14
ENDBRANCH  12  13
ENDBRANCH  11  12
ENDBRANCH  10  11
ENDBRANCH   7  10
ENDBRANCH   1   7
BRANCH   5  16
ATOM     16  O   UNL     1     137.341 143.195 173.290  1.00  0.00    -0.508 OA
ATOM     17  H   UNL     1     137.726 142.559 173.907  1.00  0.00     0.293 HD
ENDBRANCH   5  16
BRANCH   4  18
ATOM     18  C   UNL     1     136.241 142.722 170.731  1.00  0.00     0.028 C 
ATOM     19  C   UNL     1     135.682 143.247 169.406  1.00  0.00    -0.003 C 
ATOM     20  C   UNL     1     136.271 141.194 170.701  1.00  0.00     0.040 C 
ATOM     21  C   UNL     1     134.263 142.713 169.204  1.00  0.00     0.007 C 
ATOM     22  C   UNL     1     134.852 140.659 170.500  1.00  0.00     0.115 C 
ATOM     23  C   UNL     1     134.293 141.183 169.175  1.00  0.00     0.032 C 
BRANCH  19  24
ATOM     24  C   UNL     1     135.652 144.777 169.435  1.00  0.00     0.006 C 
BRANCH  24  25
ATOM     25  C   UNL     1     134.244 145.265 169.088  1.00  0.00     0.028 C 
BRANCH  25  26
ATOM     26  C   UNL     1     134.077 146.713 169.554  1.00  0.00     0.156 C 
BRANCH  26  27
ATOM     27  O   UNL     1     133.181 147.396 168.674  1.00  0.00    -0.396 OA
ATOM     28  H   UNL     1     133.610 147.782 167.898  1.00  0.00     0.210 HD
ENDBRANCH  26  27
ENDBRANCH  25  26
ENDBRANCH  24  25
ENDBRANCH  19  24
BRANCH  22  29
ATOM     29  O   UNL     1     134.880 139.231 170.472  1.00  0.00    -0.393 OA
ATOM     30  H   UNL     1     134.005 138.820 170.428  1.00  0.00     0.210 HD
ENDBRANCH  22  29
ENDBRANCH   4  18
TORSDOF 13
ENDMDL
