REMARK SMILES CCCCCCC(C)(C)c1ccc([C@@H]2C[C@H](O)CC[C@H]2CCCO)c(O)c1
REMARK SMILES IDX 10 1 11 2 12 3 13 4 25 5 27 6 7 7 8 8 9 9 6 10 5 11 4 12
REMARK SMILES IDX 3 13 2 14 1 15 26 16 14 18 20 19 15 20 19 21 16 22 18 23
REMARK SMILES IDX 21 24 22 25 23 26 24 27 17 29
REMARK H PARENT 26 17 24 28 17 30
ROOT
ATOM      1  C   UNL     1       1.173  -0.487   1.011  1.00  0.00    -0.039 A 
ATOM      2  C   UNL     1       0.726  -0.512  -0.297  1.00  0.00     0.005 A 
ATOM      3  C   UNL     1      -0.622  -0.653  -0.567  1.00  0.00     0.008 A 
ATOM      4  C   UNL     1      -1.527  -0.770   0.470  1.00  0.00    -0.003 A 
ATOM      5  C   UNL     1      -1.081  -0.746   1.784  1.00  0.00     0.119 A 
ATOM      6  C   UNL     1       0.273  -0.609   2.052  1.00  0.00     0.050 A 
ENDROOT
BRANCH   1   7
ATOM      7  C   UNL     1       2.644  -0.332   1.302  1.00  0.00    -0.010 C 
ATOM      8  C   UNL     1       3.139  -1.549   2.085  1.00  0.00     0.016 C 
ATOM      9  C   UNL     1       2.869   0.934   2.131  1.00  0.00     0.016 C 
BRANCH   7  10
ATOM     10  C   UNL     1       3.415  -0.224  -0.015  1.00  0.00     0.011 C 
BRANCH  10  11
ATOM     11  C   UNL     1       4.908  -0.067   0.280  1.00  0.00     0.001 C 
BRANCH  11  12
ATOM     12  C   UNL     1       5.680   0.041  -1.036  1.00  0.00     0.000 C 
BRANCH  12  13
ATOM     13  C   UNL     1       7.173   0.198  -0.741  1.00  0.00    -0.000 C 
BRANCH  13  14
ATOM     14  C   UNL     1       7.944   0.305  -2.058  1.00  0.00    -0.003 C 
ATOM     15  C   UNL     1       9.438   0.462  -1.763  1.00  0.00     0.004 C 
ENDBRANCH  13  14
ENDBRANCH  12  13
ENDBRANCH  11  12
ENDBRANCH  10  11
ENDBRANCH   7  10
ENDBRANCH   1   7
BRANCH   5  16
ATOM     16  O   UNL     1      -1.969  -0.866   2.806  1.00  0.00    -0.508 OA
ATOM     17  H   UNL     1      -2.319  -0.023   3.124  1.00  0.00     0.293 HD
ENDBRANCH   5  16
BRANCH   4  18
ATOM     18  C   UNL     1      -2.997  -0.924   0.175  1.00  0.00     0.028 C 
ATOM     19  C   UNL     1      -3.490   0.294  -0.610  1.00  0.00    -0.003 C 
ATOM     20  C   UNL     1      -3.221  -2.189  -0.655  1.00  0.00     0.040 C 
ATOM     21  C   UNL     1      -4.982   0.138  -0.909  1.00  0.00     0.007 C 
ATOM     22  C   UNL     1      -4.713  -2.346  -0.954  1.00  0.00     0.115 C 
ATOM     23  C   UNL     1      -5.206  -1.128  -1.739  1.00  0.00     0.032 C 
BRANCH  19  24
ATOM     24  C   UNL     1      -3.266   1.560   0.220  1.00  0.00     0.006 C 
BRANCH  24  25
ATOM     25  C   UNL     1      -3.643   2.788  -0.612  1.00  0.00     0.028 C 
BRANCH  25  26
ATOM     26  C   UNL     1      -3.419   4.054   0.218  1.00  0.00     0.156 C 
BRANCH  26  27
ATOM     27  O   UNL     1      -3.771   5.201  -0.559  1.00  0.00    -0.396 OA
ATOM     28  H   UNL     1      -3.654   6.041  -0.095  1.00  0.00     0.210 HD
ENDBRANCH  26  27
ENDBRANCH  25  26
ENDBRANCH  24  25
ENDBRANCH  19  24
BRANCH  22  29
ATOM     29  O   UNL     1      -4.922  -3.528  -1.729  1.00  0.00    -0.393 OA
ATOM     30  H   UNL     1      -5.848  -3.691  -1.956  1.00  0.00     0.210 HD
ENDBRANCH  22  29
ENDBRANCH   4  18
TORSDOF 13
