MODEL 1
REMARK VINA RESULT:   -10.822      0.000      0.000
REMARK INTER + INTRA:         -16.595
REMARK INTER:                 -16.200
REMARK INTRA:                  -0.395
REMARK UNBOUND:                -0.395
REMARK SMILES Cc1c(C(=O)N[C@]23C[C@H]4C[C@H](C[C@H](C4)C2)C3)nn(CCCCCO)c1-c1ccccc1
REMARK SMILES IDX 20 1 19 2 18 3 3 4 2 5 17 6 25 7 1 8 4 9 6 10 5 11 7 13 8 14
REMARK SMILES IDX 9 15 15 16 16 17 10 18 14 19 13 20 11 21 12 22 26 23 27 24
REMARK SMILES IDX 31 25 28 26 30 27 29 28 21 29 22 30 23 31 24 32
REMARK H PARENT 6 12 24 33
ROOT
ATOM      1  C   UNL     1      10.282  -4.121 -54.652  1.00  0.00     0.024 C 
ENDROOT
BRANCH   1   2
ATOM      2  C   UNL     1      10.616  -2.919 -53.767  1.00  0.00     0.145 C 
BRANCH   2   3
ATOM      3  N   UNL     1       9.697  -1.819 -54.069  1.00  0.00    -0.264 N 
ATOM      4  C   UNL     1       8.891  -0.064 -54.985  1.00  0.00     0.153 A 
ATOM      5  C   UNL     1       7.954  -0.491 -54.020  1.00  0.00     0.008 A 
ATOM      6  N   UNL     1       9.901  -0.911 -54.954  1.00  0.00    -0.167 NA
ATOM      7  C   UNL     1       8.499  -1.609 -53.453  1.00  0.00     0.072 A 
ATOM      8  C   UNL     1       6.631   0.149 -53.685  1.00  0.00     0.049 C 
BRANCH   4   9
ATOM      9  C   UNL     1       8.762   1.112 -55.870  1.00  0.00     0.272 C 
ATOM     10  N   UNL     1       9.837   1.573 -56.540  1.00  0.00    -0.345 N 
ATOM     11  O   UNL     1       7.685   1.662 -55.996  1.00  0.00    -0.267 OA
ATOM     12  H   UNL     1      10.696   1.134 -56.438  1.00  0.00     0.164 HD
BRANCH  10  13
ATOM     13  C   UNL     1       9.709   2.739 -57.418  1.00  0.00     0.041 C 
ATOM     14  C   UNL     1       9.483   3.993 -56.571  1.00  0.00     0.032 C 
ATOM     15  C   UNL     1       9.350   5.210 -57.488  1.00  0.00    -0.008 C 
ATOM     16  C   UNL     1       8.520   2.539 -58.361  1.00  0.00     0.032 C 
ATOM     17  C   UNL     1      10.989   2.901 -58.240  1.00  0.00     0.032 C 
ATOM     18  C   UNL     1      10.630   5.373 -58.309  1.00  0.00     0.007 C 
ATOM     19  C   UNL     1       8.161   5.010 -58.430  1.00  0.00     0.007 C 
ATOM     20  C   UNL     1       8.387   3.756 -59.277  1.00  0.00    -0.008 C 
ATOM     21  C   UNL     1      10.856   4.118 -59.156  1.00  0.00    -0.008 C 
ATOM     22  C   UNL     1       9.667   3.919 -60.098  1.00  0.00     0.007 C 
ENDBRANCH  10  13
ENDBRANCH   4   9
BRANCH   7  23
ATOM     23  C   UNL     1       7.901  -2.436 -52.380  1.00  0.00     0.000 A 
ATOM     24  C   UNL     1       7.037  -3.482 -52.701  1.00  0.00     0.010 A 
ATOM     25  C   UNL     1       8.205  -2.174 -51.043  1.00  0.00     0.010 A 
ATOM     26  C   UNL     1       6.483  -4.248 -51.696  1.00  0.00     0.001 A 
ATOM     27  C   UNL     1       7.640  -2.943 -50.048  1.00  0.00     0.001 A 
ATOM     28  C   UNL     1       6.783  -3.980 -50.372  1.00  0.00     0.000 A 
ENDBRANCH   7  23
ENDBRANCH   2   3
ENDBRANCH   1   2
BRANCH   1  29
ATOM     29  C   UNL     1      11.494  -4.469 -55.520  1.00  0.00     0.004 C 
BRANCH  29  30
ATOM     30  C   UNL     1      11.081  -4.475 -56.993  1.00  0.00     0.028 C 
BRANCH  30  31
ATOM     31  C   UNL     1      11.841  -3.377 -57.740  1.00  0.00     0.156 C 
BRANCH  31  32
ATOM     32  O   UNL     1      11.753  -2.153 -57.010  1.00  0.00    -0.396 OA
ATOM     33  H   UNL     1      11.580  -2.269 -56.066  1.00  0.00     0.210 HD
ENDBRANCH  31  32
ENDBRANCH  30  31
ENDBRANCH  29  30
ENDBRANCH   1  29
TORSDOF 9
ENDMDL
MODEL 2
REMARK VINA RESULT:   -10.760      0.089      1.324
REMARK INTER + INTRA:         -16.502
REMARK INTER:                 -16.180
REMARK INTRA:                  -0.322
REMARK UNBOUND:                -0.395
REMARK SMILES Cc1c(C(=O)N[C@]23C[C@H]4C[C@H](C[C@H](C4)C2)C3)nn(CCCCCO)c1-c1ccccc1
REMARK SMILES IDX 20 1 19 2 18 3 3 4 2 5 17 6 25 7 1 8 4 9 6 10 5 11 7 13 8 14
REMARK SMILES IDX 9 15 15 16 16 17 10 18 14 19 13 20 11 21 12 22 26 23 27 24
REMARK SMILES IDX 31 25 28 26 30 27 29 28 21 29 22 30 23 31 24 32
REMARK H PARENT 6 12 24 33
ROOT
ATOM      1  C   UNL     1      10.286  -4.087 -54.647  1.00  0.00     0.024 C 
ENDROOT
BRANCH   1   2
ATOM      2  C   UNL     1      10.615  -2.867 -53.785  1.00  0.00     0.145 C 
BRANCH   2   3
ATOM      3  N   UNL     1       9.679  -1.783 -54.093  1.00  0.00    -0.264 N 
ATOM      4  C   UNL     1       8.846  -0.044 -55.019  1.00  0.00     0.153 A 
ATOM      5  C   UNL     1       7.914  -0.484 -54.054  1.00  0.00     0.008 A 
ATOM      6  N   UNL     1       9.870  -0.875 -54.981  1.00  0.00    -0.167 NA
ATOM      7  C   UNL     1       8.476  -1.591 -53.482  1.00  0.00     0.072 A 
ATOM      8  C   UNL     1       6.580   0.136 -53.725  1.00  0.00     0.049 C 
BRANCH   4   9
ATOM      9  C   UNL     1       8.701   1.125 -55.908  1.00  0.00     0.272 C 
ATOM     10  N   UNL     1       9.771   1.606 -56.572  1.00  0.00    -0.345 N 
ATOM     11  O   UNL     1       7.614   1.654 -56.044  1.00  0.00    -0.267 OA
ATOM     12  H   UNL     1      10.638   1.184 -56.463  1.00  0.00     0.164 HD
BRANCH  10  13
ATOM     13  C   UNL     1       9.626   2.766 -57.454  1.00  0.00     0.041 C 
ATOM     14  C   UNL     1       8.382   2.591 -58.327  1.00  0.00     0.032 C 
ATOM     15  C   UNL     1       8.231   3.803 -59.248  1.00  0.00    -0.008 C 
ATOM     16  C   UNL     1      10.863   2.886 -58.348  1.00  0.00     0.032 C 
ATOM     17  C   UNL     1       9.483   4.034 -56.610  1.00  0.00     0.032 C 
ATOM     18  C   UNL     1       8.087   5.070 -58.405  1.00  0.00     0.007 C 
ATOM     19  C   UNL     1       9.467   3.921 -60.142  1.00  0.00     0.007 C 
ATOM     20  C   UNL     1      10.712   4.097 -59.269  1.00  0.00    -0.008 C 
ATOM     21  C   UNL     1       9.332   5.246 -57.531  1.00  0.00    -0.008 C 
ATOM     22  C   UNL     1      10.567   5.365 -58.425  1.00  0.00     0.007 C 
ENDBRANCH  10  13
ENDBRANCH   4   9
BRANCH   7  23
ATOM     23  C   UNL     1       7.889  -2.423 -52.407  1.00  0.00     0.000 A 
ATOM     24  C   UNL     1       7.033  -3.477 -52.726  1.00  0.00     0.010 A 
ATOM     25  C   UNL     1       8.194  -2.159 -51.071  1.00  0.00     0.010 A 
ATOM     26  C   UNL     1       6.489  -4.248 -51.719  1.00  0.00     0.001 A 
ATOM     27  C   UNL     1       7.639  -2.933 -50.074  1.00  0.00     0.001 A 
ATOM     28  C   UNL     1       6.791  -3.978 -50.396  1.00  0.00     0.000 A 
ENDBRANCH   7  23
ENDBRANCH   2   3
ENDBRANCH   1   2
BRANCH   1  29
ATOM     29  C   UNL     1      11.500  -4.447 -55.507  1.00  0.00     0.004 C 
BRANCH  29  30
ATOM     30  C   UNL     1      11.089  -4.477 -56.980  1.00  0.00     0.028 C 
BRANCH  30  31
ATOM     31  C   UNL     1      11.817  -3.362 -57.736  1.00  0.00     0.156 C 
BRANCH  31  32
ATOM     32  O   UNL     1      11.782  -2.161 -56.964  1.00  0.00    -0.396 OA
ATOM     33  H   UNL     1      11.488  -1.384 -57.458  1.00  0.00     0.210 HD
ENDBRANCH  31  32
ENDBRANCH  30  31
ENDBRANCH  29  30
ENDBRANCH   1  29
TORSDOF 9
ENDMDL
MODEL 3
REMARK VINA RESULT:   -10.728      0.158      1.640
REMARK INTER + INTRA:         -16.454
REMARK INTER:                 -16.121
REMARK INTRA:                  -0.333
REMARK UNBOUND:                -0.395
REMARK SMILES Cc1c(C(=O)N[C@]23C[C@H]4C[C@H](C[C@H](C4)C2)C3)nn(CCCCCO)c1-c1ccccc1
REMARK SMILES IDX 20 1 19 2 18 3 3 4 2 5 17 6 25 7 1 8 4 9 6 10 5 11 7 13 8 14
REMARK SMILES IDX 9 15 15 16 16 17 10 18 14 19 13 20 11 21 12 22 26 23 27 24
REMARK SMILES IDX 31 25 28 26 30 27 29 28 21 29 22 30 23 31 24 32
REMARK H PARENT 6 12 24 33
ROOT
ATOM      1  C   UNL     1      10.275  -4.100 -54.709  1.00  0.00     0.024 C 
ENDROOT
BRANCH   1   2
ATOM      2  C   UNL     1      10.631  -2.907 -53.821  1.00  0.00     0.145 C 
BRANCH   2   3
ATOM      3  N   UNL     1       9.734  -1.788 -54.121  1.00  0.00    -0.264 N 
ATOM      4  C   UNL     1       8.966  -0.012 -55.031  1.00  0.00     0.153 A 
ATOM      5  C   UNL     1       8.015  -0.429 -54.074  1.00  0.00     0.008 A 
ATOM      6  N   UNL     1       9.960  -0.878 -54.999  1.00  0.00    -0.167 NA
ATOM      7  C   UNL     1       8.536  -1.560 -53.511  1.00  0.00     0.072 A 
ATOM      8  C   UNL     1       6.702   0.234 -53.743  1.00  0.00     0.049 C 
BRANCH   4   9
ATOM      9  C   UNL     1       8.864   1.171 -55.909  1.00  0.00     0.272 C 
ATOM     10  N   UNL     1       9.920   1.550 -56.655  1.00  0.00    -0.345 N 
ATOM     11  O   UNL     1       7.825   1.802 -55.960  1.00  0.00    -0.267 OA
ATOM     12  H   UNL     1      10.748   1.047 -56.613  1.00  0.00     0.164 HD
BRANCH  10  13
ATOM     13  C   UNL     1       9.819   2.723 -57.526  1.00  0.00     0.041 C 
ATOM     14  C   UNL     1      11.038   2.781 -58.448  1.00  0.00     0.032 C 
ATOM     15  C   UNL     1      10.931   4.007 -59.359  1.00  0.00    -0.008 C 
ATOM     16  C   UNL     1       9.766   3.992 -56.671  1.00  0.00     0.032 C 
ATOM     17  C   UNL     1       8.546   2.624 -58.369  1.00  0.00     0.032 C 
ATOM     18  C   UNL     1       9.659   3.907 -60.201  1.00  0.00     0.007 C 
ATOM     19  C   UNL     1      10.879   5.274 -58.503  1.00  0.00     0.007 C 
ATOM     20  C   UNL     1       9.659   5.216 -57.581  1.00  0.00    -0.008 C 
ATOM     21  C   UNL     1       8.439   3.849 -59.279  1.00  0.00    -0.008 C 
ATOM     22  C   UNL     1       8.387   5.116 -58.424  1.00  0.00     0.007 C 
ENDBRANCH  10  13
ENDBRANCH   4   9
BRANCH   7  23
ATOM     23  C   UNL     1       7.917  -2.382 -52.447  1.00  0.00     0.000 A 
ATOM     24  C   UNL     1       8.203  -2.124 -51.107  1.00  0.00     0.010 A 
ATOM     25  C   UNL     1       7.039  -3.415 -52.781  1.00  0.00     0.010 A 
ATOM     26  C   UNL     1       7.622  -2.894 -50.120  1.00  0.00     0.001 A 
ATOM     27  C   UNL     1       6.470  -4.181 -51.785  1.00  0.00     0.001 A 
ATOM     28  C   UNL     1       6.758  -3.920 -50.457  1.00  0.00     0.000 A 
ENDBRANCH   7  23
ENDBRANCH   2   3
ENDBRANCH   1   2
BRANCH   1  29
ATOM     29  C   UNL     1      11.495  -4.498 -55.543  1.00  0.00     0.004 C 
BRANCH  29  30
ATOM     30  C   UNL     1      11.100  -4.575 -57.018  1.00  0.00     0.028 C 
BRANCH  30  31
ATOM     31  C   UNL     1      11.835  -3.485 -57.801  1.00  0.00     0.156 C 
BRANCH  31  32
ATOM     32  O   UNL     1      11.791  -2.260 -57.069  1.00  0.00    -0.396 OA
ATOM     33  H   UNL     1      11.946  -2.362 -56.121  1.00  0.00     0.210 HD
ENDBRANCH  31  32
ENDBRANCH  30  31
ENDBRANCH  29  30
ENDBRANCH   1  29
TORSDOF 9
ENDMDL
MODEL 4
REMARK VINA RESULT:    -9.551      2.666      8.832
REMARK INTER + INTRA:         -14.691
REMARK INTER:                 -14.544
REMARK INTRA:                  -0.147
REMARK UNBOUND:                -0.395
REMARK SMILES Cc1c(C(=O)N[C@]23C[C@H]4C[C@H](C[C@H](C4)C2)C3)nn(CCCCCO)c1-c1ccccc1
REMARK SMILES IDX 20 1 19 2 18 3 3 4 2 5 17 6 25 7 1 8 4 9 6 10 5 11 7 13 8 14
REMARK SMILES IDX 9 15 15 16 16 17 10 18 14 19 13 20 11 21 12 22 26 23 27 24
REMARK SMILES IDX 31 25 28 26 30 27 29 28 21 29 22 30 23 31 24 32
REMARK H PARENT 6 12 24 33
ROOT
ATOM      1  C   UNL     1       4.213   2.592 -58.554  1.00  0.00     0.024 C 
ENDROOT
BRANCH   1   2
ATOM      2  C   UNL     1       5.672   2.989 -58.783  1.00  0.00     0.145 C 
BRANCH   2   3
ATOM      3  N   UNL     1       6.520   2.337 -57.781  1.00  0.00    -0.264 N 
ATOM      4  C   UNL     1       7.103   1.126 -56.119  1.00  0.00     0.153 A 
ATOM      5  C   UNL     1       8.280   1.711 -56.634  1.00  0.00     0.008 A 
ATOM      6  N   UNL     1       6.098   1.547 -56.861  1.00  0.00    -0.167 NA
ATOM      7  C   UNL     1       7.873   2.478 -57.690  1.00  0.00     0.072 A 
ATOM      8  C   UNL     1       9.688   1.529 -56.127  1.00  0.00     0.049 C 
BRANCH   4   9
ATOM      9  C   UNL     1       7.015   0.207 -54.966  1.00  0.00     0.272 C 
ATOM     10  N   UNL     1       7.906  -0.795 -54.832  1.00  0.00    -0.345 N 
ATOM     11  O   UNL     1       6.138   0.356 -54.136  1.00  0.00    -0.267 OA
ATOM     12  H   UNL     1       8.605  -0.914 -55.494  1.00  0.00     0.164 HD
BRANCH  10  13
ATOM     13  C   UNL     1       7.819  -1.706 -53.688  1.00  0.00     0.041 C 
ATOM     14  C   UNL     1       7.660  -0.895 -52.401  1.00  0.00     0.032 C 
ATOM     15  C   UNL     1       7.568  -1.846 -51.206  1.00  0.00    -0.008 C 
ATOM     16  C   UNL     1       9.095  -2.547 -53.606  1.00  0.00     0.032 C 
ATOM     17  C   UNL     1       6.611  -2.629 -53.862  1.00  0.00     0.032 C 
ATOM     18  C   UNL     1       6.360  -2.768 -51.381  1.00  0.00     0.007 C 
ATOM     19  C   UNL     1       8.844  -2.686 -51.125  1.00  0.00     0.007 C 
ATOM     20  C   UNL     1       9.003  -3.498 -52.412  1.00  0.00    -0.008 C 
ATOM     21  C   UNL     1       6.519  -3.580 -52.668  1.00  0.00    -0.008 C 
ATOM     22  C   UNL     1       7.794  -4.420 -52.586  1.00  0.00     0.007 C 
ENDBRANCH  10  13
ENDBRANCH   4   9
BRANCH   7  23
ATOM     23  C   UNL     1       8.736   3.301 -58.567  1.00  0.00     0.000 A 
ATOM     24  C   UNL     1       8.997   4.633 -58.244  1.00  0.00     0.010 A 
ATOM     25  C   UNL     1       9.296   2.746 -59.719  1.00  0.00     0.010 A 
ATOM     26  C   UNL     1       9.803   5.394 -59.066  1.00  0.00     0.001 A 
ATOM     27  C   UNL     1      10.094   3.520 -60.536  1.00  0.00     0.001 A 
ATOM     28  C   UNL     1      10.350   4.840 -60.209  1.00  0.00     0.000 A 
ENDBRANCH   7  23
ENDBRANCH   2   3
ENDBRANCH   1   2
BRANCH   1  29
ATOM     29  C   UNL     1       3.597   2.128 -59.875  1.00  0.00     0.004 C 
BRANCH  29  30
ATOM     30  C   UNL     1       4.688   1.528 -60.764  1.00  0.00     0.028 C 
BRANCH  30  31
ATOM     31  C   UNL     1       4.395   1.864 -62.228  1.00  0.00     0.156 C 
BRANCH  31  32
ATOM     32  O   UNL     1       5.523   2.529 -62.799  1.00  0.00    -0.396 OA
ATOM     33  H   UNL     1       6.269   1.945 -62.989  1.00  0.00     0.210 HD
ENDBRANCH  31  32
ENDBRANCH  30  31
ENDBRANCH  29  30
ENDBRANCH   1  29
TORSDOF 9
ENDMDL
MODEL 5
REMARK VINA RESULT:    -9.415      2.494      8.711
REMARK INTER + INTRA:         -14.489
REMARK INTER:                 -14.167
REMARK INTRA:                  -0.322
REMARK UNBOUND:                -0.395
REMARK SMILES Cc1c(C(=O)N[C@]23C[C@H]4C[C@H](C[C@H](C4)C2)C3)nn(CCCCCO)c1-c1ccccc1
REMARK SMILES IDX 20 1 19 2 18 3 3 4 2 5 17 6 25 7 1 8 4 9 6 10 5 11 7 13 8 14
REMARK SMILES IDX 9 15 15 16 16 17 10 18 14 19 13 20 11 21 12 22 26 23 27 24
REMARK SMILES IDX 31 25 28 26 30 27 29 28 21 29 22 30 23 31 24 32
REMARK H PARENT 6 12 24 33
ROOT
ATOM      1  C   UNL     1       8.267   2.283 -61.727  1.00  0.00     0.024 C 
ENDROOT
BRANCH   1   2
ATOM      2  C   UNL     1       9.463   3.039 -61.147  1.00  0.00     0.145 C 
BRANCH   2   3
ATOM      3  N   UNL     1       9.476   2.891 -59.690  1.00  0.00    -0.264 N 
ATOM      4  C   UNL     1       8.932   2.236 -57.728  1.00  0.00     0.153 A 
ATOM      5  C   UNL     1      10.033   3.107 -57.580  1.00  0.00     0.008 A 
ATOM      6  N   UNL     1       8.664   2.158 -59.017  1.00  0.00    -0.167 NA
ATOM      7  C   UNL     1      10.353   3.508 -58.848  1.00  0.00     0.072 A 
ATOM      8  C   UNL     1      10.713   3.510 -56.297  1.00  0.00     0.049 C 
BRANCH   4   9
ATOM      9  C   UNL     1       8.216   1.538 -56.641  1.00  0.00     0.272 C 
ATOM     10  N   UNL     1       8.822   0.539 -55.967  1.00  0.00    -0.345 N 
ATOM     11  O   UNL     1       7.081   1.865 -56.353  1.00  0.00    -0.267 OA
ATOM     12  H   UNL     1       9.727   0.279 -56.198  1.00  0.00     0.164 HD
BRANCH  10  13
ATOM     13  C   UNL     1       8.112  -0.153 -54.889  1.00  0.00     0.041 C 
ATOM     14  C   UNL     1       6.659  -0.389 -55.304  1.00  0.00     0.032 C 
ATOM     15  C   UNL     1       5.917  -1.112 -54.178  1.00  0.00    -0.008 C 
ATOM     16  C   UNL     1       8.148   0.705 -53.622  1.00  0.00     0.032 C 
ATOM     17  C   UNL     1       8.788  -1.497 -54.613  1.00  0.00     0.032 C 
ATOM     18  C   UNL     1       6.594  -2.456 -53.903  1.00  0.00     0.007 C 
ATOM     19  C   UNL     1       5.953  -0.254 -52.911  1.00  0.00     0.007 C 
ATOM     20  C   UNL     1       7.407  -0.018 -52.496  1.00  0.00    -0.008 C 
ATOM     21  C   UNL     1       8.048  -2.220 -53.488  1.00  0.00    -0.008 C 
ATOM     22  C   UNL     1       8.082  -1.363 -52.221  1.00  0.00     0.007 C 
ENDBRANCH  10  13
ENDBRANCH   4   9
BRANCH   7  23
ATOM     23  C   UNL     1      11.445   4.431 -59.232  1.00  0.00     0.000 A 
ATOM     24  C   UNL     1      11.147   5.711 -59.700  1.00  0.00     0.010 A 
ATOM     25  C   UNL     1      12.776   4.026 -59.122  1.00  0.00     0.010 A 
ATOM     26  C   UNL     1      12.169   6.566 -60.056  1.00  0.00     0.001 A 
ATOM     27  C   UNL     1      13.788   4.889 -59.488  1.00  0.00     0.001 A 
ATOM     28  C   UNL     1      13.487   6.158 -59.951  1.00  0.00     0.000 A 
ENDBRANCH   7  23
ENDBRANCH   2   3
ENDBRANCH   1   2
BRANCH   1  29
ATOM     29  C   UNL     1       6.987   3.084 -61.476  1.00  0.00     0.004 C 
BRANCH  29  30
ATOM     30  C   UNL     1       5.779   2.149 -61.549  1.00  0.00     0.028 C 
BRANCH  30  31
ATOM     31  C   UNL     1       5.088   2.101 -60.184  1.00  0.00     0.156 C 
BRANCH  31  32
ATOM     32  O   UNL     1       5.916   2.733 -59.207  1.00  0.00    -0.396 OA
ATOM     33  H   UNL     1       5.924   3.697 -59.263  1.00  0.00     0.210 HD
ENDBRANCH  31  32
ENDBRANCH  30  31
ENDBRANCH  29  30
ENDBRANCH   1  29
TORSDOF 9
ENDMDL
MODEL 6
REMARK VINA RESULT:    -9.410      2.396      8.538
REMARK INTER + INTRA:         -14.481
REMARK INTER:                 -13.867
REMARK INTRA:                  -0.614
REMARK UNBOUND:                -0.395
REMARK SMILES Cc1c(C(=O)N[C@]23C[C@H]4C[C@H](C[C@H](C4)C2)C3)nn(CCCCCO)c1-c1ccccc1
REMARK SMILES IDX 20 1 19 2 18 3 3 4 2 5 17 6 25 7 1 8 4 9 6 10 5 11 7 13 8 14
REMARK SMILES IDX 9 15 15 16 16 17 10 18 14 19 13 20 11 21 12 22 26 23 27 24
REMARK SMILES IDX 31 25 28 26 30 27 29 28 21 29 22 30 23 31 24 32
REMARK H PARENT 6 12 24 33
ROOT
ATOM      1  C   UNL     1      11.304   3.223 -57.005  1.00  0.00     0.024 C 
ENDROOT
BRANCH   1   2
ATOM      2  C   UNL     1      11.020   1.740 -57.246  1.00  0.00     0.145 C 
BRANCH   2   3
ATOM      3  N   UNL     1       9.812   1.348 -56.516  1.00  0.00    -0.264 N 
ATOM      4  C   UNL     1       8.553   0.435 -55.048  1.00  0.00     0.153 A 
ATOM      5  C   UNL     1       7.710   1.154 -55.923  1.00  0.00     0.008 A 
ATOM      6  N   UNL     1       9.791   0.605 -55.469  1.00  0.00    -0.167 NA
ATOM      7  C   UNL     1       8.542   1.721 -56.847  1.00  0.00     0.072 A 
ATOM      8  C   UNL     1       6.209   1.272 -55.852  1.00  0.00     0.049 C 
BRANCH   4   9
ATOM      9  C   UNL     1       8.128  -0.356 -53.875  1.00  0.00     0.272 C 
ATOM     10  N   UNL     1       8.356  -1.684 -53.839  1.00  0.00    -0.345 N 
ATOM     11  O   UNL     1       7.575   0.192 -52.941  1.00  0.00    -0.267 OA
ATOM     12  H   UNL     1       8.797  -2.120 -54.585  1.00  0.00     0.164 HD
BRANCH  10  13
ATOM     13  C   UNL     1       7.935  -2.468 -52.676  1.00  0.00     0.041 C 
ATOM     14  C   UNL     1       7.724  -3.925 -53.092  1.00  0.00     0.032 C 
ATOM     15  C   UNL     1       7.285  -4.744 -51.876  1.00  0.00    -0.008 C 
ATOM     16  C   UNL     1       6.625  -1.900 -52.124  1.00  0.00     0.032 C 
ATOM     17  C   UNL     1       9.016  -2.397 -51.595  1.00  0.00     0.032 C 
ATOM     18  C   UNL     1       8.365  -4.673 -50.796  1.00  0.00     0.007 C 
ATOM     19  C   UNL     1       5.975  -4.176 -51.326  1.00  0.00     0.007 C 
ATOM     20  C   UNL     1       6.186  -2.719 -50.909  1.00  0.00    -0.008 C 
ATOM     21  C   UNL     1       8.577  -3.216 -50.380  1.00  0.00    -0.008 C 
ATOM     22  C   UNL     1       7.267  -2.649 -49.829  1.00  0.00     0.007 C 
ENDBRANCH  10  13
ENDBRANCH   4   9
BRANCH   7  23
ATOM     23  C   UNL     1       8.143   2.579 -57.985  1.00  0.00     0.000 A 
ATOM     24  C   UNL     1       7.854   3.928 -57.780  1.00  0.00     0.010 A 
ATOM     25  C   UNL     1       8.058   2.041 -59.271  1.00  0.00     0.010 A 
ATOM     26  C   UNL     1       7.483   4.721 -58.846  1.00  0.00     0.001 A 
ATOM     27  C   UNL     1       7.679   2.844 -60.327  1.00  0.00     0.001 A 
ATOM     28  C   UNL     1       7.395   4.181 -60.116  1.00  0.00     0.000 A 
ENDBRANCH   7  23
ENDBRANCH   2   3
ENDBRANCH   1   2
BRANCH   1  29
ATOM     29  C   UNL     1      12.194   3.761 -58.128  1.00  0.00     0.004 C 
BRANCH  29  30
ATOM     30  C   UNL     1      11.408   3.774 -59.439  1.00  0.00     0.028 C 
BRANCH  30  31
ATOM     31  C   UNL     1      10.981   5.207 -59.765  1.00  0.00     0.156 C 
BRANCH  31  32
ATOM     32  O   UNL     1      12.121   6.066 -59.722  1.00  0.00    -0.396 OA
ATOM     33  H   UNL     1      12.429   6.354 -60.592  1.00  0.00     0.210 HD
ENDBRANCH  31  32
ENDBRANCH  30  31
ENDBRANCH  29  30
ENDBRANCH   1  29
TORSDOF 9
ENDMDL
MODEL 7
REMARK VINA RESULT:    -9.317      2.423      8.494
REMARK INTER + INTRA:         -14.342
REMARK INTER:                 -13.903
REMARK INTRA:                  -0.439
REMARK UNBOUND:                -0.395
REMARK SMILES Cc1c(C(=O)N[C@]23C[C@H]4C[C@H](C[C@H](C4)C2)C3)nn(CCCCCO)c1-c1ccccc1
REMARK SMILES IDX 20 1 19 2 18 3 3 4 2 5 17 6 25 7 1 8 4 9 6 10 5 11 7 13 8 14
REMARK SMILES IDX 9 15 15 16 16 17 10 18 14 19 13 20 11 21 12 22 26 23 27 24
REMARK SMILES IDX 31 25 28 26 30 27 29 28 21 29 22 30 23 31 24 32
REMARK H PARENT 6 12 24 33
ROOT
ATOM      1  C   UNL     1      11.367   3.311 -56.963  1.00  0.00     0.024 C 
ENDROOT
BRANCH   1   2
ATOM      2  C   UNL     1      11.066   1.843 -57.272  1.00  0.00     0.145 C 
BRANCH   2   3
ATOM      3  N   UNL     1       9.867   1.426 -56.542  1.00  0.00    -0.264 N 
ATOM      4  C   UNL     1       8.631   0.504 -55.060  1.00  0.00     0.153 A 
ATOM      5  C   UNL     1       7.769   1.166 -55.960  1.00  0.00     0.008 A 
ATOM      6  N   UNL     1       9.866   0.710 -55.475  1.00  0.00    -0.167 NA
ATOM      7  C   UNL     1       8.587   1.740 -56.893  1.00  0.00     0.072 A 
ATOM      8  C   UNL     1       6.264   1.227 -55.905  1.00  0.00     0.049 C 
BRANCH   4   9
ATOM      9  C   UNL     1       8.226  -0.271 -53.869  1.00  0.00     0.272 C 
ATOM     10  N   UNL     1       8.497  -1.589 -53.799  1.00  0.00    -0.345 N 
ATOM     11  O   UNL     1       7.651   0.282 -52.952  1.00  0.00    -0.267 OA
ATOM     12  H   UNL     1       8.956  -2.029 -54.531  1.00  0.00     0.164 HD
BRANCH  10  13
ATOM     13  C   UNL     1       8.096  -2.357 -52.618  1.00  0.00     0.041 C 
ATOM     14  C   UNL     1       7.010  -1.595 -51.858  1.00  0.00     0.032 C 
ATOM     15  C   UNL     1       6.590  -2.398 -50.624  1.00  0.00    -0.008 C 
ATOM     16  C   UNL     1       9.308  -2.562 -51.706  1.00  0.00     0.032 C 
ATOM     17  C   UNL     1       7.553  -3.719 -53.055  1.00  0.00     0.032 C 
ATOM     18  C   UNL     1       6.047  -3.758 -51.062  1.00  0.00     0.007 C 
ATOM     19  C   UNL     1       7.803  -2.601 -49.713  1.00  0.00     0.007 C 
ATOM     20  C   UNL     1       8.889  -3.365 -50.473  1.00  0.00    -0.008 C 
ATOM     21  C   UNL     1       7.134  -4.522 -51.823  1.00  0.00    -0.008 C 
ATOM     22  C   UNL     1       8.345  -4.725 -50.911  1.00  0.00     0.007 C 
ENDBRANCH  10  13
ENDBRANCH   4   9
BRANCH   7  23
ATOM     23  C   UNL     1       8.165   2.550 -58.058  1.00  0.00     0.000 A 
ATOM     24  C   UNL     1       8.008   1.951 -59.308  1.00  0.00     0.010 A 
ATOM     25  C   UNL     1       7.918   3.915 -57.909  1.00  0.00     0.010 A 
ATOM     26  C   UNL     1       7.614   2.712 -60.389  1.00  0.00     0.001 A 
ATOM     27  C   UNL     1       7.531   4.666 -58.999  1.00  0.00     0.001 A 
ATOM     28  C   UNL     1       7.376   4.066 -60.237  1.00  0.00     0.000 A 
ENDBRANCH   7  23
ENDBRANCH   2   3
ENDBRANCH   1   2
BRANCH   1  29
ATOM     29  C   UNL     1      12.214   3.907 -58.090  1.00  0.00     0.004 C 
BRANCH  29  30
ATOM     30  C   UNL     1      11.447   3.813 -59.409  1.00  0.00     0.028 C 
BRANCH  30  31
ATOM     31  C   UNL     1      11.095   5.220 -59.896  1.00  0.00     0.156 C 
BRANCH  31  32
ATOM     32  O   UNL     1      12.130   6.129 -59.517  1.00  0.00    -0.396 OA
ATOM     33  H   UNL     1      12.480   6.654 -60.248  1.00  0.00     0.210 HD
ENDBRANCH  31  32
ENDBRANCH  30  31
ENDBRANCH  29  30
ENDBRANCH   1  29
TORSDOF 9
ENDMDL
MODEL 8
REMARK VINA RESULT:    -8.903      2.207      8.567
REMARK INTER + INTRA:         -13.722
REMARK INTER:                 -13.417
REMARK INTRA:                  -0.304
REMARK UNBOUND:                -0.395
REMARK SMILES Cc1c(C(=O)N[C@]23C[C@H]4C[C@H](C[C@H](C4)C2)C3)nn(CCCCCO)c1-c1ccccc1
REMARK SMILES IDX 20 1 19 2 18 3 3 4 2 5 17 6 25 7 1 8 4 9 6 10 5 11 7 13 8 14
REMARK SMILES IDX 9 15 15 16 16 17 10 18 14 19 13 20 11 21 12 22 26 23 27 24
REMARK SMILES IDX 31 25 28 26 30 27 29 28 21 29 22 30 23 31 24 32
REMARK H PARENT 6 12 24 33
ROOT
ATOM      1  C   UNL     1       7.227   4.265 -58.900  1.00  0.00     0.024 C 
ENDROOT
BRANCH   1   2
ATOM      2  C   UNL     1       8.281   4.580 -57.837  1.00  0.00     0.145 C 
BRANCH   2   3
ATOM      3  N   UNL     1       8.710   3.338 -57.190  1.00  0.00    -0.264 N 
ATOM      4  C   UNL     1       8.633   1.535 -56.043  1.00  0.00     0.153 A 
ATOM      5  C   UNL     1       9.955   1.662 -56.522  1.00  0.00     0.008 A 
ATOM      6  N   UNL     1       7.953   2.573 -56.489  1.00  0.00    -0.167 NA
ATOM      7  C   UNL     1       9.970   2.821 -57.246  1.00  0.00     0.072 A 
ATOM      8  C   UNL     1      11.106   0.719 -56.284  1.00  0.00     0.049 C 
BRANCH   4   9
ATOM      9  C   UNL     1       8.107   0.439 -55.203  1.00  0.00     0.272 C 
ATOM     10  N   UNL     1       8.894  -0.131 -54.269  1.00  0.00    -0.345 N 
ATOM     11  O   UNL     1       6.964   0.054 -55.354  1.00  0.00    -0.267 OA
ATOM     12  H   UNL     1       9.805   0.177 -54.150  1.00  0.00     0.164 HD
BRANCH  10  13
ATOM     13  C   UNL     1       8.372  -1.217 -53.436  1.00  0.00     0.041 C 
ATOM     14  C   UNL     1       7.508  -2.146 -54.290  1.00  0.00     0.032 C 
ATOM     15  C   UNL     1       6.963  -3.281 -53.420  1.00  0.00    -0.008 C 
ATOM     16  C   UNL     1       7.525  -0.630 -52.304  1.00  0.00     0.032 C 
ATOM     17  C   UNL     1       9.538  -2.009 -52.841  1.00  0.00     0.032 C 
ATOM     18  C   UNL     1       8.129  -4.072 -52.826  1.00  0.00     0.007 C 
ATOM     19  C   UNL     1       6.116  -2.693 -52.289  1.00  0.00     0.007 C 
ATOM     20  C   UNL     1       6.980  -1.764 -51.434  1.00  0.00    -0.008 C 
ATOM     21  C   UNL     1       8.994  -3.143 -51.971  1.00  0.00    -0.008 C 
ATOM     22  C   UNL     1       8.146  -2.557 -50.840  1.00  0.00     0.007 C 
ENDBRANCH  10  13
ENDBRANCH   4   9
BRANCH   7  23
ATOM     23  C   UNL     1      11.132   3.402 -57.957  1.00  0.00     0.000 A 
ATOM     24  C   UNL     1      12.074   4.157 -57.259  1.00  0.00     0.010 A 
ATOM     25  C   UNL     1      11.291   3.191 -59.327  1.00  0.00     0.010 A 
ATOM     26  C   UNL     1      13.154   4.695 -57.928  1.00  0.00     0.001 A 
ATOM     27  C   UNL     1      12.371   3.740 -59.986  1.00  0.00     0.001 A 
ATOM     28  C   UNL     1      13.303   4.488 -59.288  1.00  0.00     0.000 A 
ENDBRANCH   7  23
ENDBRANCH   2   3
ENDBRANCH   1   2
BRANCH   1  29
ATOM     29  C   UNL     1       7.921   3.811 -60.187  1.00  0.00     0.004 C 
BRANCH  29  30
ATOM     30  C   UNL     1       7.604   2.337 -60.443  1.00  0.00     0.028 C 
BRANCH  30  31
ATOM     31  C   UNL     1       6.091   2.158 -60.591  1.00  0.00     0.156 C 
BRANCH  31  32
ATOM     32  O   UNL     1       5.598   1.357 -59.516  1.00  0.00    -0.396 OA
ATOM     33  H   UNL     1       5.010   1.828 -58.912  1.00  0.00     0.210 HD
ENDBRANCH  31  32
ENDBRANCH  30  31
ENDBRANCH  29  30
ENDBRANCH   1  29
TORSDOF 9
ENDMDL
MODEL 9
REMARK VINA RESULT:    -8.576      2.467      8.775
REMARK INTER + INTRA:         -13.232
REMARK INTER:                 -13.109
REMARK INTRA:                  -0.123
REMARK UNBOUND:                -0.395
REMARK SMILES Cc1c(C(=O)N[C@]23C[C@H]4C[C@H](C[C@H](C4)C2)C3)nn(CCCCCO)c1-c1ccccc1
REMARK SMILES IDX 20 1 19 2 18 3 3 4 2 5 17 6 25 7 1 8 4 9 6 10 5 11 7 13 8 14
REMARK SMILES IDX 9 15 15 16 16 17 10 18 14 19 13 20 11 21 12 22 26 23 27 24
REMARK SMILES IDX 31 25 28 26 30 27 29 28 21 29 22 30 23 31 24 32
REMARK H PARENT 6 12 24 33
ROOT
ATOM      1  C   UNL     1       6.285   2.856 -58.723  1.00  0.00     0.024 C 
ENDROOT
BRANCH   1   2
ATOM      2  C   UNL     1       6.091   2.944 -57.209  1.00  0.00     0.145 C 
BRANCH   2   3
ATOM      3  N   UNL     1       6.963   1.972 -56.546  1.00  0.00    -0.264 N 
ATOM      4  C   UNL     1       7.583   0.309 -55.354  1.00  0.00     0.153 A 
ATOM      5  C   UNL     1       8.754   0.899 -55.877  1.00  0.00     0.008 A 
ATOM      6  N   UNL     1       6.558   1.006 -55.803  1.00  0.00    -0.167 NA
ATOM      7  C   UNL     1       8.323   1.956 -56.629  1.00  0.00     0.072 A 
ATOM      8  C   UNL     1      10.177   0.458 -55.654  1.00  0.00     0.049 C 
BRANCH   4   9
ATOM      9  C   UNL     1       7.518  -0.874 -54.472  1.00  0.00     0.272 C 
ATOM     10  N   UNL     1       7.662  -0.731 -53.139  1.00  0.00    -0.345 N 
ATOM     11  O   UNL     1       7.333  -1.978 -54.948  1.00  0.00    -0.267 OA
ATOM     12  H   UNL     1       7.810   0.150 -52.760  1.00  0.00     0.164 HD
BRANCH  10  13
ATOM     13  C   UNL     1       7.597  -1.904 -52.264  1.00  0.00     0.041 C 
ATOM     14  C   UNL     1       8.848  -2.760 -52.466  1.00  0.00     0.032 C 
ATOM     15  C   UNL     1       8.780  -3.985 -51.552  1.00  0.00    -0.008 C 
ATOM     16  C   UNL     1       6.354  -2.728 -52.607  1.00  0.00     0.032 C 
ATOM     17  C   UNL     1       7.520  -1.449 -50.806  1.00  0.00     0.032 C 
ATOM     18  C   UNL     1       8.703  -3.530 -50.094  1.00  0.00     0.007 C 
ATOM     19  C   UNL     1       7.538  -4.809 -51.896  1.00  0.00     0.007 C 
ATOM     20  C   UNL     1       6.286  -3.952 -51.694  1.00  0.00    -0.008 C 
ATOM     21  C   UNL     1       7.452  -2.673 -49.892  1.00  0.00    -0.008 C 
ATOM     22  C   UNL     1       6.210  -3.497 -50.235  1.00  0.00     0.007 C 
ENDBRANCH  10  13
ENDBRANCH   4   9
BRANCH   7  23
ATOM     23  C   UNL     1       9.172   2.901 -57.390  1.00  0.00     0.000 A 
ATOM     24  C   UNL     1       9.734   2.514 -58.607  1.00  0.00     0.010 A 
ATOM     25  C   UNL     1       9.409   4.184 -56.896  1.00  0.00     0.010 A 
ATOM     26  C   UNL     1      10.523   3.400 -59.311  1.00  0.00     0.001 A 
ATOM     27  C   UNL     1      10.205   5.058 -57.607  1.00  0.00     0.001 A 
ATOM     28  C   UNL     1      10.759   4.669 -58.814  1.00  0.00     0.000 A 
ENDBRANCH   7  23
ENDBRANCH   2   3
ENDBRANCH   1   2
BRANCH   1  29
ATOM     29  C   UNL     1       5.656   1.562 -59.244  1.00  0.00     0.004 C 
BRANCH  29  30
ATOM     30  C   UNL     1       4.496   1.900 -60.182  1.00  0.00     0.028 C 
BRANCH  30  31
ATOM     31  C   UNL     1       4.288   0.751 -61.170  1.00  0.00     0.156 C 
BRANCH  31  32
ATOM     32  O   UNL     1       3.983   1.281 -62.461  1.00  0.00    -0.396 OA
ATOM     33  H   UNL     1       4.428   2.116 -62.659  1.00  0.00     0.210 HD
ENDBRANCH  31  32
ENDBRANCH  30  31
ENDBRANCH  29  30
ENDBRANCH   1  29
TORSDOF 9
ENDMDL
